384
Lattice="17.969669268716967 0.0 0.0 0.0 15.562179603320493 0.0 0.0 0.0 14.67216645535607" Properties=species:S:1:pos:R:3 energy=-1907.517822265625 pbc="T T T"
O       17.96966648       5.19387965       0.44910752
O       17.96966648       2.58721057       4.11714914
O        2.24620616       1.30333467       0.44910758
O        2.24620629       6.47775556       4.11714927
O        2.24620593       6.49258669      14.20572899
O        2.24620593       1.28850348       3.20160403
O       17.96966648       2.60204181      14.20572896
O       17.96966649       5.17904837       3.20160405
O       17.96966648       5.19387965       7.78519107
O       17.96966648       2.58721056      11.45323244
O        2.24620616       1.30333468       7.78519110
O        2.24620628       6.47775555      11.45323255
O        2.24620594       6.49258674       6.86964566
O        2.24620593       1.28850345      10.53768727
O       17.96966650       2.60204185       6.86964565
O       17.96966650       5.17904835      10.53768730
O       17.96966649      12.97496945       0.44910753
O       17.96966648      10.36830032       4.11714914
O        2.24620616       9.08442448       0.44910759
O        2.24620632      14.25884535       4.11714925
O        2.24620594      14.27367646      14.20572898
O        2.24620593       9.06959324       3.20160404
O       17.96966649      10.38313160      14.20572896
O       17.96966648      12.96013815       3.20160405
O       17.96966648      12.97496945       7.78519108
O       17.96966648      10.36830033      11.45323242
O        2.24620616       9.08442448       7.78519110
O        2.24620635      14.25884535      11.45323254
O        2.24620594      14.27367652       6.86964565
O        2.24620593       9.06959322      10.53768729
O       17.96966648      10.38313164       6.86964566
O       17.96966649      12.96013812      10.53768730
O        4.49241471       5.19387958       0.44910757
O        4.49241471       2.58721063       4.11714921
O        6.73862338       1.30333471       0.44910755
O        6.73862338       6.47775550       4.11714921
O        6.73862304       6.49258675      14.20572892
O        6.73862304       1.28850343       3.20160398
O        4.49241507       2.60204183      14.20572893
O        4.49241507       5.17904832       3.20160401
O        4.49241471       5.19387959       7.78519110
O        4.49241471       2.58721063      11.45323249
O        6.73862338       1.30333471       7.78519109
O        6.73862338       6.47775550      11.45323249
O        6.73862306       6.49258680       6.86964562
O        6.73862306       1.28850338      10.53768722
O        4.49241506       2.60204189       6.86964562
O        4.49241507       5.17904828      10.53768724
O        4.49241471      12.97496940       0.44910757
O        4.49241471      10.36830041       4.11714919
O        6.73862338       9.08442452       0.44910757
O        6.73862338      14.25884529       4.11714919
O        6.73862311      14.27367653      14.20572891
O        6.73862305       9.06959319       3.20160400
O        4.49241508      10.38313164      14.20572892
O        4.49241508      12.96013810       3.20160401
O        4.49241471      12.97496941       7.78519110
O        4.49241471      10.36830041      11.45323248
O        6.73862338       9.08442452       7.78519109
O        6.73862338      14.25884529      11.45323248
O        6.73862311      14.27367658       6.86964560
O        6.73862303       9.06959316      10.53768724
O        4.49241507      10.38313168       6.86964562
O        4.49241507      12.96013806      10.53768724
O        8.98483196       5.19387958       0.44910757
O        8.98483191       2.58721065       4.11714922
O       11.23104091       1.30333472       0.44910755
O       11.23104095       6.47775550       4.11714920
O       11.23104048       6.49258668      14.20572898
O       11.23104048       1.28850348       3.20160403
O        8.98483229       2.60204173      14.20572902
O        8.98483229       5.17904842       3.20160408
O        8.98483194       5.19387959       7.78519110
O        8.98483188       2.58721064      11.45323251
O       11.23104093       1.30333473       7.78519109
O       11.23104095       6.47775549      11.45323249
O       11.23104048       6.49258675       6.86964565
O       11.23104048       1.28850343      10.53768726
O        8.98483228       2.60204178       6.86964570
O        8.98483229       5.17904839      10.53768733
O        8.98483197      12.97496940       0.44910757
O        8.98483187      10.36830041       4.11714922
O       11.23104087       9.08442453       0.44910756
O       11.23104100      14.25884529       4.11714919
O       11.23104048      14.27367647      14.20572897
O       11.23104048       9.06959323       3.20160403
O        8.98483229      10.38313154      14.20572902
O        8.98483229      12.96013820       3.20160408
O        8.98483199      12.97496941       7.78519110
O        8.98483185      10.36830041      11.45323251
O       11.23104090       9.08442453       7.78519109
O       11.23104103      14.25884527      11.45323247
O       11.23104048      14.27367653       6.86964565
O       11.23104048       9.06959320      10.53768727
O        8.98483228      10.38313159       6.86964570
O        8.98483229      12.96013817      10.53768733
O       13.47724955       5.19387961       0.44910755
O       13.47724942       2.58721063       4.11714919
O       15.72345813       1.30333472       0.44910756
O       15.72345831       6.47775548       4.11714919
O       15.72345782       6.49258658      14.20572906
O       15.72345782       1.28850361       3.20160412
O       13.47724962       2.60204181      14.20572895
O       13.47724963       5.17904836       3.20160403
O       13.47724953       5.19387962       7.78519109
O       13.47724941       2.58721062      11.45323248
O       15.72345812       1.30333472       7.78519109
O       15.72345827       6.47775549      11.45323248
O       15.72345782       6.49258660       6.86964578
O       15.72345781       1.28850359      10.53768741
O       13.47724962       2.60204186       6.86964563
O       13.47724962       5.17904831      10.53768726
O       13.47724958      12.97496942       0.44910756
O       13.47724940      10.36830040       4.11714920
O       15.72345807       9.08442452       0.44910757
O       15.72345835      14.25884527       4.11714918
O       15.72345782      14.27367637      14.20572905
O       15.72345783       9.06959338       3.20160414
O       13.47724962      10.38313160      14.20572895
O       13.47724962      12.96013814       3.20160403
O       13.47724958      12.97496943       7.78519109
O       13.47724937      10.36830040      11.45323248
O       15.72345810       9.08442452       7.78519109
O       15.72345837      14.25884526      11.45323245
O       15.72345782      14.27367638       6.86964577
O       15.72345783       9.06959335      10.53768740
O       13.47724962      10.38313166       6.86964564
O       13.47724962      12.96013809      10.53768726
H       17.96966663       4.23979877       0.14728830
H       17.96966673       5.17534114       1.44931274
H       17.96966655       3.54129146       3.81532992
H       17.96966648       2.60574909       5.11735443
H        2.24620613       1.28479618       1.44931281
H        2.24620612       0.34925377       0.14728834
H        2.24620616       6.49629406       5.11735450
H        2.24620616       7.43183646       3.81532999
H        1.44531928       6.00091955      14.54919704
H        3.04709256       6.00091948      14.54919712
H        1.44531923       1.78017072       3.54507210
H        3.04709257       1.78017078       3.54507212
H        0.80088508       2.11037452      14.54919713
H       17.16878033       2.11037467      14.54919706
H        0.80088517       5.67071570       3.54507219
H       17.16878033       5.67071554       3.54507207
H       17.96966662       4.23979874       7.48337171
H       17.96966674       5.17534114       8.78539615
H       17.96966657       3.54129144      11.15141322
H       17.96966648       2.60574909      12.45343784
H        2.24620613       1.28479619       8.78539626
H        2.24620612       0.34925376       7.48337175
H        2.24620616       6.49629406      12.45343790
H        2.24620616       7.43183645      11.15141328
H        1.44531927       6.00091952       7.21311373
H        3.04709259       6.00091944       7.21311381
H        1.44531923       1.78017070      10.88115543
H        3.04709259       1.78017079      10.88115546
H        0.80088505       2.11037450       7.21311382
H       17.16878032       2.11037464       7.21311376
H        0.80088517       5.67071570      10.88115552
H       17.16878032       5.67071555      10.88115541
H       17.96966670      12.02088856       0.14728831
H       17.96966685      12.95643094       1.44931276
H       17.96966650      11.32238122       3.81532992
H       17.96966648      10.38683886       5.11735443
H        2.24620610       9.06588600       1.44931283
H        2.24620608       8.13034361       0.14728835
H        2.24620616      14.27738385       5.11735450
H        2.24620616      15.21292626       3.81532998
H        1.44531933      13.78200933      14.54919704
H        3.04709257      13.78200927      14.54919711
H        1.44531923       9.56126047       3.54507211
H        3.04709257       9.56126055       3.54507214
H        0.80088505       9.89146434      14.54919713
H       17.16878033       9.89146447      14.54919708
H        0.80088517      13.45180550       3.54507219
H       17.16878033      13.45180532       3.54507207
H       17.96966668      12.02088855       7.48337171
H       17.96966679      12.95643094       8.78539616
H       17.96966653      11.32238120      11.15141320
H       17.96966648      10.38683885      12.45343783
H        2.24620612       9.06588599       8.78539627
H        2.24620610       8.13034358       7.48337176
H        2.24620616      14.27738385      12.45343788
H        2.24620616      15.21292625      11.15141327
H        1.44531931      13.78200929       7.21311373
H        3.04709259      13.78200923       7.21311381
H        1.44531923       9.56126048      10.88115546
H        3.04709258       9.56126055      10.88115547
H        0.80088505       9.89146430       7.21311383
H       17.16878033       9.89146445       7.21311377
H        0.80088516      13.45180549      10.88115551
H       17.16878033      13.45180532      10.88115540
H        4.49241504       4.23979871       0.14728833
H        4.49241503       5.17534107       1.44931279
H        4.49241503       3.54129152       3.81532995
H        4.49241499       2.60574915       5.11735445
H        6.73862338       1.28479619       1.44931278
H        6.73862338       0.34925381       0.14728831
H        6.73862334       6.49629403       5.11735446
H        6.73862330       7.43183640       3.81532995
H        5.93773666       6.00091951      14.54919707
H        7.53950963       6.00091954      14.54919706
H        5.93773661       1.78017075       3.54507211
H        7.53950965       1.78017072       3.54507209
H        5.29330152       2.11037459      14.54919708
H        3.69152839       2.11037462      14.54919706
H        5.29330160       5.67071563       3.54507213
H        3.69152839       5.67071560       3.54507210
H        4.49241501       4.23979868       7.48337173
H        4.49241500       5.17534108       8.78539622
H        4.49241503       3.54129151      11.15141324
H        4.49241501       2.60574915      12.45343785
H        6.73862335       1.28479619       8.78539621
H        6.73862336       0.34925380       7.48337172
H        6.73862331       6.49629403      12.45343786
H        6.73862326       7.43183638      11.15141324
H        5.93773664       6.00091948       7.21311377
H        7.53950964       6.00091951       7.21311375
H        5.93773656       1.78017075      10.88115545
H        7.53950971       1.78017072      10.88115544
H        5.29330156       2.11037456       7.21311378
H        3.69152837       2.11037459       7.21311375
H        5.29330165       5.67071564      10.88115547
H        3.69152834       5.67071561      10.88115545
H        4.49241507      12.02088851       0.14728833
H        4.49241505      12.95643089       1.44931280
H        4.49241503      11.32238130       3.81532994
H        4.49241500      10.38683894       5.11735445
H        6.73862333       9.06588600       1.44931280
H        6.73862333       8.13034364       0.14728832
H        6.73862337      14.27738383       5.11735445
H        6.73862331      15.21292619       3.81532994
H        5.93773666      13.78200930      14.54919707
H        7.53950963      13.78200933      14.54919705
H        5.93773663       9.56126051       3.54507212
H        7.53950964       9.56126048       3.54507210
H        5.29330149       9.89146441      14.54919708
H        3.69152839       9.89146444      14.54919706
H        5.29330160      13.45180542       3.54507211
H        3.69152839      13.45180539       3.54507210
H        4.49241505      12.02088850       7.48337173
H        4.49241503      12.95643088       8.78539624
H        4.49241503      11.32238128      11.15141323
H        4.49241501      10.38683894      12.45343784
H        6.73862333       9.06588600       8.78539622
H        6.73862332       8.13034362       7.48337173
H        6.73862334      14.27738383      12.45343784
H        6.73862329      15.21292617      11.15141323
H        5.93773664      13.78200927       7.21311377
H        7.53950965      13.78200930       7.21311375
H        5.93773657       9.56126052      10.88115546
H        7.53950970       9.56126048      10.88115544
H        5.29330154       9.89146437       7.21311378
H        3.69152838       9.89146440       7.21311375
H        5.29330165      13.45180542      10.88115547
H        3.69152834      13.45180539      10.88115544
H        8.98483229       4.23979870       0.14728837
H        8.98483229       5.17534111       1.44931279
H        8.98483229       3.54129155       3.81533000
H        8.98483229       2.60574914       5.11735446
H       11.23104048       1.28479623       1.44931278
H       11.23104048       0.34925383       0.14728833
H       11.23104048       6.49629401       5.11735445
H       11.23104048       7.43183639       3.81532997
H       10.43015424       6.00091954      14.54919705
H       12.03192675       6.00091942      14.54919714
H       10.43015420       1.78017071       3.54507209
H       12.03192675       1.78017084       3.54507218
H        9.78571853       2.11037460      14.54919708
H        8.18394593       2.11037447      14.54919718
H        9.78571855       5.67071564       3.54507213
H        8.18394590       5.67071577       3.54507223
H        8.98483229       4.23979868       7.48337178
H        8.98483229       5.17534110       8.78539622
H        8.98483229       3.54129152      11.15141329
H        8.98483229       2.60574913      12.45343785
H       11.23104048       1.28479623       8.78539618
H       11.23104048       0.34925381       7.48337173
H       11.23104048       6.49629401      12.45343785
H       11.23104048       7.43183637      11.15141325
H       10.43015422       6.00091950       7.21311375
H       12.03192677       6.00091938       7.21311384
H       10.43015415       1.78017071      10.88115543
H       12.03192683       1.78017084      10.88115552
H        9.78571854       2.11037456       7.21311377
H        8.18394591       2.11037443       7.21311387
H        9.78571860       5.67071564      10.88115547
H        8.18394584       5.67071576      10.88115556
H        8.98483229      12.02088852       0.14728837
H        8.98483229      12.95643092       1.44931280
H        8.98483229      11.32238131       3.81532999
H        8.98483229      10.38683892       5.11735446
H       11.23104048       9.06588601       1.44931278
H       11.23104048       8.13034364       0.14728833
H       11.23104048      14.27738380       5.11735445
H       11.23104048      15.21292618       3.81532996
H       10.43015424      13.78200933      14.54919705
H       12.03192675      13.78200922      14.54919714
H       10.43015418       9.56126047       3.54507209
H       12.03192677       9.56126060       3.54507219
H        9.78571853       9.89146440      14.54919708
H        8.18394593       9.89146429      14.54919718
H        9.78571855      13.45180542       3.54507213
H        8.18394590      13.45180555       3.54507222
H        8.98483229      12.02088851       7.48337178
H        8.98483229      12.95643092       8.78539623
H        8.98483229      11.32238129      11.15141328
H        8.98483229      10.38683891      12.45343784
H       11.23104048       9.06588601       8.78539619
H       11.23104048       8.13034362       7.48337173
H       11.23104048      14.27738379      12.45343783
H       11.23104048      15.21292616      11.15141324
H       10.43015421      13.78200929       7.21311375
H       12.03192678      13.78200918       7.21311384
H       10.43015414       9.56126047      10.88115543
H       12.03192682       9.56126060      10.88115553
H        9.78571855       9.89146437       7.21311377
H        8.18394591       9.89146425       7.21311387
H        9.78571860      13.45180542      10.88115546
H        8.18394584      13.45180555      10.88115556
H       13.47724962       4.23979874       0.14728834
H       13.47724962       5.17534111       1.44931278
H       13.47724962       3.54129152       3.81532996
H       13.47724962       2.60574915       5.11735445
H       15.72345781       1.28479625       1.44931277
H       15.72345781       0.34925382       0.14728836
H       15.72345781       6.49629397       5.11735443
H       15.72345781       7.43183638       3.81533000
H       14.92257166       6.00091944      14.54919713
H       16.52434445       6.00091935      14.54919719
H       14.92257166       1.78017079       3.54507214
H       16.52434445       1.78017090       3.54507220
H       14.27813590       2.11037466      14.54919702
H       12.67636337       2.11037453      14.54919713
H       14.27813602       5.67071557       3.54507208
H       12.67636335       5.67071572       3.54507218
H       13.47724962       4.23979871       7.48337174
H       13.47724962       5.17534110       8.78539620
H       13.47724962       3.54129150      11.15141325
H       13.47724962       2.60574915      12.45343785
H       15.72345781       1.28479625       8.78539620
H       15.72345781       0.34925381       7.48337177
H       15.72345781       6.49629398      12.45343783
H       15.72345781       7.43183638      11.15141328
H       14.92257166       6.00091943       7.21311380
H       16.52434444       6.00091933       7.21311386
H       14.92257166       1.78017078      10.88115548
H       16.52434445       1.78017089      10.88115555
H       14.27813593       2.11037463       7.21311371
H       12.67636335       2.11037449       7.21311382
H       14.27813607       5.67071559      10.88115542
H       12.67636328       5.67071572      10.88115553
H       13.47724962      12.02088854       0.14728834
H       13.47724962      12.95643091       1.44931278
H       13.47724962      11.32238128       3.81532997
H       13.47724962      10.38683892       5.11735445
H       15.72345781       9.06588604       1.44931279
H       15.72345781       8.13034363       0.14728838
H       15.72345781      14.27738377       5.11735444
H       15.72345781      15.21292616       3.81533000
H       14.92257166      13.78200923      14.54919711
H       16.52434445      13.78200914      14.54919718
H       14.92257165       9.56126056       3.54507216
H       16.52434444       9.56126066       3.54507221
H       14.27813591       9.89146446      14.54919703
H       12.67636337       9.89146434      14.54919714
H       14.27813602      13.45180536       3.54507208
H       12.67636335      13.45180550       3.54507218
H       13.47724962      12.02088852       7.48337174
H       13.47724962      12.95643091       8.78539620
H       13.47724962      11.32238127      11.15141325
H       13.47724962      10.38683892      12.45343784
H       15.72345781       9.06588605       8.78539621
H       15.72345781       8.13034362       7.48337178
H       15.72345782      14.27738375      12.45343782
H       15.72345781      15.21292615      11.15141328
H       14.92257166      13.78200922       7.21311380
H       16.52434444      13.78200912       7.21311386
H       14.92257165       9.56126056      10.88115548
H       16.52434444       9.56126066      10.88115554
H       14.27813591       9.89146443       7.21311372
H       12.67636335       9.89146430       7.21311383
H       14.27813605      13.45180536      10.88115542
H       12.67636328      13.45180550      10.88115552
384
Lattice="17.969669268716967 0.0 0.0 0.0 15.562179603320493 0.0 0.0 0.0 14.67216645535607" Properties=species:S:1:pos:R:3 energy=-1907.1015625 pbc="T T T"
O        0.00338157       5.17380045       0.46678630
O        0.00363142       2.59909302       4.11245955
O        2.24012306       1.30334871       0.46803724
O        2.24201828       6.49497088       4.13467338
O        2.23780168       6.48079704      14.20562104
O        2.25377559       1.29267243       3.21751378
O       17.95857176       2.58643900      14.20629092
O       17.96891465       5.19770707       3.21369647
O       17.96650943       5.17942228       7.78617450
O        0.00370718       2.59926329      11.45550484
O        2.25282928       1.30728716       7.78714718
O        2.25317460       6.48986926      11.45899864
O        2.24105102       6.49297062       6.88743732
O        2.25260280       1.30887553      10.53772867
O       17.96599347       2.59123284       6.86274260
O        0.01099305       5.19125810      10.53752788
O        0.00756535      12.96396616       0.44859373
O        0.01176257      10.38098401       4.12430000
O        2.25823637       9.07594231       0.45105241
O        2.24509040      14.25391077       4.12180827
O        2.25181188      14.27528519      14.20754951
O        2.25168603       9.08439882       3.20230884
O        0.00030080      10.36336940      14.21727109
O       17.95892030      12.97536197       3.20075759
O        0.00084939      12.97759564       7.78481090
O       17.96006440      10.37172277      11.46540972
O        2.24453728       9.09187949       7.78383492
O        2.23723664      14.27776785      11.45628048
O        2.24209973      14.27935348       6.87176375
O        2.23907501       9.08405075      10.53643553
O       17.96797182      10.38696943       6.87607957
O        0.00275127      12.96062789      10.53282824
O        4.47907699       5.18542222       0.45001398
O        4.50100454       2.60025338       4.12022935
O        6.74860009       1.30372836       0.46512520
O        6.72794564       6.48726738       4.12018631
O        6.73088081       6.48603399      14.22426913
O        6.74801835       1.29439779       3.21451515
O        4.49487568       2.58265384      14.21487002
O        4.48482750       5.19530811       3.20136298
O        4.49276367       5.19501629       7.78438979
O        4.50172232       2.59160001      11.46662063
O        6.73227236       1.28785360       7.78976117
O        6.72674453       6.48138864      11.47094364
O        6.74746945       6.47501595       6.86720339
O        6.75084514       1.30261430      10.53920340
O        4.49265270       2.60318246       6.87308449
O        4.49125729       5.18082876      10.53298150
O        4.49385582      12.97696307       0.44997593
O        4.48947641      10.38570543       4.13095483
O        6.73679759       9.08701879       0.45216989
O        6.74915969      14.26261907       4.13176323
O        6.73441371      14.27427496      14.20518425
O        6.72677145       9.07881088       3.20273896
O        4.49538921      10.38753888      14.20812982
O        4.50175758      12.97640184       3.20100161
O        4.48161428      12.97465319       7.80348051
O        4.48432842      10.37407928      11.45483700
O        6.73602218       9.06627492       7.80289546
O        6.74139133      14.27772429      11.45474114
O        6.74378593      14.25146575       6.88388191
O        6.73417023       9.06815387      10.55480071
O        4.50145069      10.38557257       6.88017088
O        4.48742951      12.97648823      10.55498040
O        8.97852834       5.19753277       0.46334912
O        8.99032074       2.58393603       4.13425943
O       11.23621089       1.30552912       0.45080195
O       11.23231818       6.47515216       4.11875641
O       11.22493227       6.48937346      14.21783917
O       11.24043308       1.30066915       3.20531726
O        8.99104418       2.60531013      14.20862258
O        8.97582844       5.18241810       3.21853999
O        8.99710297       5.19057815       7.80030236
O        8.99197391       2.60281053      11.45698991
O       11.22632263       1.29339534       7.78069505
O       11.23951883       6.47865213      11.47210838
O       11.23093461       6.49608318       6.86739748
O       11.22887497       1.28802076      10.53572730
O        8.97642679       2.59846229       6.88176406
O        8.98503050       5.19943928      10.55293201
O        8.98096191      12.97636934       0.44757422
O        8.96724650      10.37830527       4.11949177
O       11.21942049       9.08003692       0.46674147
O       11.22913189      14.27464547       4.13762779
O       11.23953327      14.26750962      14.22343409
O       11.21781764       9.07921006       3.22051293
O        8.98106614      10.38460730      14.20493829
O        8.99478485      12.97287299       3.20033349
O        8.98678043      12.95833046       7.80275987
O        8.98472352      10.36965824      11.45211338
O       11.22278723       9.08466099       7.80657368
O       11.23848133      14.26047306      11.47170439
O       11.23088213      14.25366241       6.88709727
O       11.23797315       9.06788344      10.55601879
O        8.97462554      10.37005099       6.87191328
O        8.99368878      12.97126151      10.55342069
O       13.48128737       5.19623847       0.44635792
O       13.48136829       2.59838446       4.11983337
O       15.71535098       1.29402527       0.45472457
O       15.72719902       6.49468655       4.13196656
O       15.73846643       6.48778474      14.22018629
O       15.72787161       1.30433094       3.20374381
O       13.47790839       2.60433920      14.20853693
O       13.48831255       5.19036330       3.20004772
O       13.46922250       5.17872742       7.78766343
O       13.46612107       2.60645451      11.45634224
O       15.71725087       1.30507718       7.80128661
O       15.73290179       6.47843636      11.46821678
O       15.71703780       6.49159132       6.88635902
O       15.71623532       1.30545171      10.55407111
O       13.46812338       2.59104404       6.86990476
O       13.48601553       5.19762000      10.53431442
O       13.48893036      12.96581845       0.45167646
O       13.47025075      10.38320911       4.11441961
O       15.71607835       9.08556686       0.46734393
O       15.71238611      14.26999783       4.11606574
O       15.73229421      14.25953616      14.20847449
O       15.72567977       9.08660000       3.22059141
O       13.46844287      10.36875508      14.20550754
O       13.46754300      12.97478757       3.19966224
O       13.48976599      12.96248154       7.78896604
O       13.48466013      10.38244137      11.45852337
O       15.72426880       9.09067957       7.78831386
O       15.73322835      14.26472168      11.45323434
O       15.72785248      14.27741192       6.86872390
O       15.72110934       9.06834346      10.53517176
O       13.46856975      10.36799223       6.86700330
O       13.48667856      12.97259391      10.54253856
H        0.01524678       3.52746689      14.54593333
H        0.00074292       5.17687063       2.21307308
H       17.96308849       4.24517193       3.52025069
H       17.96291251       2.59305227       5.11299776
H        2.24024974       1.30324910       2.21699590
H        2.26310423       0.36264038       0.12776514
H        2.25775072       6.47605191       5.88703490
H        2.22726562       8.14365387       3.54205147
H        0.80477925       5.66703881       0.12684058
H        3.06308326       6.03351595      14.55340645
H        1.42486199       1.76478361       3.51900477
H        3.67523373       2.12824850       3.80964151
H        0.81578962       2.13677106      14.54522806
H       16.54125587       1.77048474       0.15101025
H        1.44526082       6.00075138       3.78506327
H       16.52632399       6.00387276       3.78192837
H        0.02087855       3.52892303       7.21200188
H        0.01291099       5.19287164       8.78647084
H       17.95258673       4.25309325      10.88466321
H       17.95449102       2.58871402      12.45580563
H        2.24231451       1.28200496       8.78743367
H        2.24475783       0.35422261       7.48159379
H        2.23524397       6.47788671      12.45954760
H        2.25214368       8.14667865      10.88593320
H        0.82168398       5.65621296       7.48025306
H        3.06264626       6.00980274       7.19227857
H        1.42437493       1.75063305      10.88407345
H        3.67364467       2.14580050      11.12468826
H        0.81735129       2.13859978       7.21096295
H       16.54261047       1.75347861       7.45742158
H        1.42910088       6.01063497      11.15495463
H       17.15480653       5.64316283      10.87618672
H       17.96633742      11.31420766      14.52880660
H       17.96026875      12.97388399       1.44869612
H        0.00992030      12.03797157       3.54925161
H       17.95326211      10.36701474       5.12446165
H        2.22427344       9.08750297       1.45095409